! Touchstone file exported from HFSS 2025.2.0
!        File:           C:/Users/32474/OneDrive - UCL/Documents/Ingenieur/MASTER1/Stage/HFSS/capav3.aedt
!        Generated:      03:03:22 PM Jun 23, 2026
!        Design:         HFSSDesign1
!        Project:        capav3
!        Setup:          Setup1
!        Solution:       Sweep
!
! Variables:
!        $H1_v = 400mm
!        $H2_v = 300mm
!        $Rext_v = 150mm
!        $Rint_v = 100mm
!        $Rperp_v = 75mm
!        $z_perp_v = 120mm
!        H1_v = 40mm
!        H2_v = 30mm
!        H_diel = 5mm
!        Hbig_c = 25mm
!        Hperp_v = 60mm
!        Hperp_vdiv2 = 60
!        Rbig_c = 12mm
!        Rext_v = 15mm
!        Rint_v = 8mm
!        Rlittle_c = 4mm
!        Rperp_c = 4mm
!        Rperp_v = 6mm
!        z_diel = 5mm
!        zperp = 30
!        zperp_v = 21mm
!
!Data is not renormalized
# GHz S MA
! Terminal data exported
! Port[1] = 1
! Port[2] = 2
! Port[3] = 3
0.025                          0.226591996631778 -179.976414514264 0.773603090748119 -2.57100201231298 0.59154583023609 -2.11703572172051 
                               0.773603090748119 -2.57100201231298 0.226466466466276 -179.976903175537 0.591593764024201 -2.11728063067679 
                               0.59154583023609 -2.11703572172051 0.591593764024201 -2.11728063067679 0.547658853442242 179.497677252244 
! Gamma         0.00110920136253888 0.525077145668992 0.00111219010465187 0.525080477305599 0.000666614936687979 0.524635269691913 
! Port Impedance         24.3386963595756 -0.0497655489644597 24.3418426123695 -0.0497564079011077 41.6129271681164 -0.0497898744885666 
0.026                          0.226607431332429 -179.973358241201 0.77360141990674 -2.67443470972273 0.591534371991826 -2.20088704997801 
                               0.77360141990674 -2.67443470972273 0.226481786360845 -179.973802333469 0.591582342532733 -2.20115115613633 
                               0.591534371991826 -2.200887049978  0.591582342532733 -2.20115115613634 0.547678632645355 179.475694636906 
! Gamma         0.00113025227334601 0.546058295253463 0.00113330393316342 0.546061694851107 0.00067932872694344 0.545607444522501 
! Port Impedance         24.337739782656  -0.048792489043984 24.3408862193339 -0.0487835182564201 41.6119709617481 -0.0488155248368294 
0.027                          0.226623672789357 -179.970375274491 0.773599646307054 -2.77784821716115 0.59152299925382 -2.28474214677833 
                               0.773599646307054 -2.77784821716115 0.226497926470266 -179.97077520577 0.591571003227523 -2.28502528253938 
                               0.59152299925382 -2.28474214677833 0.591571003227523 -2.28502528253938 0.547698353405341 179.453742015593 
! Gamma         0.00115117084818676 0.567038966296229 0.00115428503012833 0.567042432416954 0.000691962995646188 0.566579329796318 
! Port Impedance         24.336834739485  -0.0478775152244092 24.3399813501457 -0.0478687049250539 41.6110662640784 -0.0478993633275131 
0.028                          0.226640698632027 -179.967459558071 0.773597775480288 -2.88124479943712 0.591511680540913 -2.36860206897244 
                               0.773597775480288 -2.88124479943712 0.226514862693188 -179.967815796041 0.591559715034974 -2.36890407389408 
                               0.591511680540913 -2.36860206897243 0.591559715034974 -2.36890407389408 0.547718079573608 179.431817470686 
! Gamma         0.00117192942652319 0.588019169140639 0.00117510565263215 0.588022700377981 0.000704500985333032 0.587550931802844 
! Port Impedance         24.3359765972905 -0.0470145150979959 24.3391233729083 -0.0470058565088863 41.6102084455361 -0.0470352658005438 
0.029                          0.22665848987427 -179.964605808405 0.773595812193159 -2.98462641499243 0.591500387489028 -2.45246758846179 
                               0.773595812193159 -2.98462641499243 0.22653257456037 -179.96491885558 0.591548449941684 -2.45278831039348 
                               0.591500387489028 -2.45246758846179 0.591548449941684 -2.45278831039348 0.547737865976349 179.409919048086 
! Gamma         0.00119250496570676 0.608998917942308 0.00119574268935616 0.609002512932601 0.000716928735145688 0.60852225912919 
! Port Impedance         24.3351613775735 -0.0461982732962828 24.3383083098784 -0.0461897585005276 41.6093935302868 -0.0462180069681276 
0.03                           0.226677030293202 -179.961809412433 0.773593760601162 -3.08799476618703 0.591489094609739 -2.53633925057536 
                               0.773593760601162 -3.08799476618703 0.226551044574374 -179.962079788684 0.591537182761084 -2.53667854627742 
                               0.59148909460974 -2.53633925057536 0.591537182761084 -2.53667854627742 0.547757759776221 179.388044808185 
! Gamma         0.00121287863029719 0.629978229558303 0.0012161772486897 0.629981886988685 0.000729234831423266 0.629493321989975 
! Port Impedance         24.3343856263039 -0.0454243177707323 24.3375327076845 -0.0454159395896388 41.6086180665217 -0.0454431063380151 
0.031                          0.226696305937558 -179.959066340264 0.773591624367689 -3.19135133992939 0.591477779045144 -2.62021742131689 
                               0.773591624367689 -3.19135133992939 0.226570257685523 -179.959294570673 0.591525890895291 -2.62057515671065 
                               0.591477779045144 -2.62021742131688 0.591525890895291 -2.62057515671065 0.547777801617714 179.366192860278 
! Gamma         0.00123303538531759 0.650957122657082 0.00123639425078626 0.650960841270851 0.000741410160978093 0.650464131690385 
! Port Impedance         24.3336463146406 -0.0446887941209471 24.3367935380652 -0.0446805460121337 41.6078790272575 -0.0447067022648614 
0.032                          0.226716304735832 -179.956373070466 0.773589406757352 -3.29469744074528 0.591466420328768 -2.70410232551669 
                               0.773589406757352 -3.29469744074528 0.226590200873283 -179.95655967703 0.591514554102022 -2.70447837567392 
                               0.591466420328768 -2.70410232551669 0.591514554102022 -2.70447837567392 0.547798026590848 179.344361385063 
! Gamma         0.00125296360068029 0.671935617008279 0.00125638203082058 0.671939395608151 0.000753447671345993 0.671434700197736 
! Port Impedance         24.332940762448  -0.0439883627136045 24.3360881213999 -0.0439802386862778 41.6071737339182 -0.0440054488528995 
0.033                          0.226737016181958 -179.953726526062 0.77358711070965 -3.39803421787522 0.591455000158431 -2.78799407758104 
                               0.77358711070965 -3.39803421787522 0.226610862809778 -179.953872022181 0.5915031542726  -2.78838832653268 
                               0.591455000158431 -2.78799407758104 0.5915031542726  -2.78838832653268 0.547818465042827 179.322548648604 
! Gamma         0.00127265467221207 0.692913732919624 0.00127613195889201 0.692917570369302 0.000765342141233149 0.6924050398018  
! Port Impedance         24.332266578926  -0.0433201143310181 24.3354140673492 -0.043312108875299 41.6064997970185 -0.0433364314341962 
0.034                          0.226758431081641 -179.951124019596 0.773584738897519 -3.50136268762086 0.591443502184357 -2.87189270623521 
                               0.773584738897519 -3.50136268762086 0.22663223358769 -179.951228906571 0.591491675224456 -2.87230504665826 
                               0.591443502184357 -2.8718927062352 0.591491675224456 -2.87230504665826 0.54783914326263 179.300753010211 
! Gamma         0.00129210266315829 0.713891490794405 0.00129563808046609 0.713895386018846 0.00077708996346132 0.713375162847864 
! Port Impedance         24.3316216161505 -0.0426815008967733 24.3347692284036 -0.0426736089245358 41.6058550697489 -0.0426970971590934 
0.035                          0.22678054134643 -179.948563205897 0.773582293774157 -3.60468375188355 0.591431911814077 -2.95579817440355 
                               0.773582293774157 -3.60468375188355 0.226654304498975 -179.948627970857 0.591480102509771 -2.95622850722901 
                               0.591431911814077 -2.95579817440354 0.591480102509771 -2.95622850722901 0.547860084059466 179.278972926017 
! Gamma         0.00131130396874329 0.734868910787798 0.00131489677993931 0.734872862772449 0.000788688941937548 0.734345081529442 
! Port Impedance         24.3310039324023 -0.042070278480652 24.3341516632198 -0.0420624952758091 41.6052376113412 -0.0420851978929589 
0.036                          0.226803339825628 -179.946042041347 0.773579777610687 -3.70799821363089 0.591420216034484 -3.03971039515872 
                               0.773579777610687 -3.70799821363089 0.226677067853892 -179.946067156196 0.591468423240719 -3.04015862913171 
                               0.591420216034484 -3.03971039515872 0.591468423240719 -3.04015862913172 0.547881307252557 179.257206949546 
! Gamma         0.00133025700529125 0.755846012544163 0.00133390646883656 0.75585002033342 0.000800138103534504 0.755314807729829 
! Port Impedance         24.3304117629547 -0.0414844603146477 24.3335596074136 -0.0414767814912005 41.6046456578849 -0.0414987431449661 
0.037                          0.226826820168318 -179.943558748686 0.773577192526615 -3.81130678986901 0.591408403250658 -3.12362924449683 
                               0.773577192526615 -3.81130678986901 0.226700516832231 -179.943544669754 0.591456625931005 -3.12409529571128 
                               0.591408403250658 -3.12362924449682 0.591456625931005 -3.12409529571128 0.547902830086768 179.235453730221 
! Gamma         0.00134896192454796 0.776822815000516 0.00135266729928352 0.776826877695599 0.000811437525251272 0.776284352903603 
! Port Impedance         24.3298434965745 -0.0409222779800346 24.3329914500643 -0.0409146994465129 41.6040775988525 -0.0409359611842642 
0.038                          0.22685097670955 -179.941111786505 0.773574540514556 -3.91461012257753 0.591396463140653 -3.2075545715517 
                               0.773574540514556 -3.91461012257753 0.22672464536036 -179.941058954675 0.591444700352962 -3.20803836297549 
                               0.591396463140653 -3.20755457155169 0.591444700352962 -3.20803836297549 0.547924667586115 179.213712010476 
! Gamma         0.00136742035316308 0.797799336243912 0.00137118090271392 0.79780345300031 0.000822588176617747 0.797253727990632 
! Port Impedance         24.3292976564211 -0.0403821492716557 24.3324457146183 -0.0403746672008329 41.6035319580185 -0.0403952668462036 
0.039                          0.226875804375963 -179.938699822728 0.77357182346042 -4.01790878797132 0.591384386525143 -3.2914862067444 
                               0.77357182346042 -4.01790878797132 0.226749448009116 -179.93860866388 0.591432637409169 -3.29198766774593 
                               0.591384386525143 -3.2914862067444 0.591432637409169 -3.29198766774593 0.547946832855173 179.191980621978 
! Gamma         0.0013856351567728 0.818775593412519 0.00138945015324979 0.818779763437152 0.000833591776994637 0.818222943356467 
! Port Impedance         24.3287728843552 -0.0398626515256533 24.3319210432005 -0.0398552623286213 41.6030073777832 -0.039875234812154 
0.04                           0.22690129860715 -179.936321711508 0.773569043159917 -4.12120330438053 0.591372165250747 -3.37542396826849 
                               0.773569043159917 -4.12120330438053 0.226774919908583 -179.936192637157 0.591420429017458 -3.37594303415233 
                               0.591372165250747 -3.37542396826848 0.591420429017458 -3.37594303415233 0.547969337336668 179.170258481315 
! Gamma         0.00140361022773778 0.83975160263191 0.00140747895480719 0.839755825180087 0.000844450667191086 0.839192008753972 
! Port Impedance         24.3282679279043 -0.0393624994235364 24.3314161835819 -0.0393551997273965 41.6025026061515 -0.0393745773737438 
0.041                          0.226927455289828 -179.933976473029 0.773566201332124 -4.22449413898404 0.591359792085796 -3.45936766723454 
                               0.773566201332124 -4.22449413898404 0.226801056676625 -179.93380988106 0.591408068008125 -3.45990427879111 
                               0.591359792085796 -3.45936766723454 0.591408068008125 -3.45990427879111 0.547992191032159 179.148544585384 
! Gamma         0.00142135029532027 0.860727378979514 0.0014252720507076 0.860731653351799 0.00085516769465977 0.86016093330195 
! Port Impedance         24.3277816293151 -0.0388805264690834 24.3309299782344 -0.0388733130976428 41.6020164857957 -0.0388921258764163 
0.042                          0.226954270702463 -179.931663275801 0.773563299630645 -4.32778171358681 0.591347260627333 -3.54331711173508 
                               0.773563299630645 -4.32778171358681 0.226827854358676 -179.931459551249 0.591395548032162 -3.54387121480738 
                               0.591347260627333 -3.54331711173508 0.591395548032162 -3.54387121480738 0.548015402691548 179.126838006681 
! Gamma         0.00143886075690588 0.881702936471389 0.00144283485439648 0.881707262010422 0.000865746111422904 0.881129725477232 
! Port Impedance         24.3273129162576 -0.0384156694834012 24.3304613550364 -0.0384085394403767 41.6015479447678 -0.0384268151863733 
0.043                          0.226981741468479 -179.929381421103 0.77356033965282 -4.43106640959656 0.591334565218226 -3.62727211004046 
                               0.77356033965282 -4.43106640959656 0.226855309376769 -179.929140936929 0.591382863479432 -3.6278436551098 
                               0.591334565218227 -3.62727211004045 0.591382863479432 -3.6278436551098 0.548038979976196 179.105137888597 
! Gamma         0.00145614752877177 0.902678288066465 0.00146017329976626 0.902682664153793 0.000876189483820831 0.902098393117319 
! Port Impedance         24.3268607938468 -0.0379669555841855 24.3300093192964 -0.037959906038506 41.6010959885283 -0.0379776706459745 
0.044                          0.227009864516537 -179.92713032927 0.773557322947333 -4.53434857232673 0.591321700873296 -3.71123247309585 
                               0.773557322947333 -4.53434857232673 0.226883418486203 -179.926853447101 0.591370009405708 -3.71182141488722 
                               0.591321700873296 -3.71123247309585 0.591370009405708 -3.71182141488722 0.548062929599643 179.083443440819 
! Gamma         0.00147321691485797 0.923653445684276 0.0014772937095361 0.923657871737244 0.000886501613148454 0.923066943431148 
! Port Impedance         24.3264243377267 -0.0375334912132456 24.3295729468377 -0.0375265194861166 41.6006596930357 -0.0375437970808794 
0.045                          0.227038637046669 -179.924909527574 0.773554251020503 -4.63762851473064 0.591308663213507 -3.7951980164566 
                               0.773554251020503 -4.63762851473064 0.226912178738519 -179.924596598389 0.591356981467655 -3.79580431356378 
                               0.591308663213507 -3.7951980164566 0.591356981467655 -3.79580431356378 0.548087257449257 179.061753934886 
! Gamma         0.00149007549199906 0.944628420232892 0.00149420268014085 0.944632895701614 0.000896686466245504 0.944035383016019 
! Port Impedance         24.3260026880169 -0.0371144528559891 24.329151377947  -0.0371075564094445 41.6002381986972 -0.0371243695020172 
0.046                          0.227068056501264 -179.922718639494 0.773551125341481 -4.74090652065324 0.591295448407324 -3.87916856177267 
                               0.773551125341481 -4.74090652065324 0.226941587449735 -179.92237000424 0.591343775864866 -3.87979217630294 
                               0.591295448407324 -3.87916856177267 0.591343775864866 -3.87979217630294 0.548111968691644 179.040068699941 
! Gamma         0.0015067300101074 0.965603221644376 0.0015109069816162 0.965607746008812 0.000906748115127673 0.965003717879063 
! Port Impedance         24.3255950439693 -0.0367090791613283 24.3287438120316 -0.0367022555880412 41.5998307050301 -0.0367186252103561 
0.047                          0.227098120540107 -179.920557375177 0.773547947346559 -4.84418284767244 0.591282053118424 -3.96314393791183 
                               0.773547947346559 -4.84418284767244 0.226971642172971 -179.920173365315 0.591330389288173 -3.96378483514941 
                               0.591282053118424 -3.96314393791183 0.591330389288173 -3.96378483514941 0.54813706786413 179.01838711869  
! Gamma         0.00152318730585799 0.98657785891558 0.00152741347102565 0.986582431682736 0.000916690684781518 0.985971953461923 
! Port Impedance         24.3252006592149 -0.0363166642231765 24.328349502867  -0.036309911237342 41.5994364659106 -0.0363258570652481 
0.048                          0.227128827018806 -179.918425522956 0.773544718442712 -4.94745772958981 0.59126847445907 -4.04712398179382 
                               0.773544718442712 -4.94745772958981 0.227002340674742 -179.918006460925 0.591316818873526 -4.04778212988133 
                               0.59126847445907 -4.04712398179382 0.591316818873526 -4.04778212988133 0.548162558954343 178.996708623586 
! Gamma         0.00153945422850081 1.00755234015252 0.00154372901805105 1.00755696085378 0.00092651830829188 1.0069400946676  
! Port Impedance         24.3248188375047 -0.0359365518276386 24.327967754339  -0.035929867256773 41.5990547853173 -0.035945407720136 
0.049                          0.227160173970061 -179.91632294178 0.773541440010528 -5.05073137862098 0.591254709948472 -4.13110853899398 
                               0.773541440010528 -5.05073137862098 0.227033680914344 -179.915869141381 0.591303062160813 -4.1317839086309 
                               0.591254709948472 -4.13110853899398 0.591303062160813 -4.1317839086309 0.54818844546953 178.975032693244 
! Gamma         0.00155553757651269 1.02852667261689 0.00155986044145501 1.02853134080549 0.000936235088523085 1.02790814588857 
! Port Impedance         24.3244489288711 -0.0355681305050093 24.3275979166058 -0.0355615122825366 41.5986850134956 -0.035576664664478 
0.05                           0.227192159587332 -179.914249554435 0.773538113406609 -5.15400398732776 0.591240757475602 -4.21509746416346 
                               0.773538113406609 -5.15400398732776 0.227065661025853 -179.913761321151 0.591289117057065 -4.21579002832056 
                               0.591240757475602 -4.21509746416346 0.591289117057065 -4.21579002832056 0.54821473049706 178.953358849075 
! Gamma         0.00157144404389343 1.04950086277367 0.00157581445521638 1.0495055780223  0.000945845065631133 1.0488761110356  
! Port Impedance         24.3240903261506 -0.0352108292542577 24.3272393826213 -0.0352042754127773 41.5983265434807 -0.0352190559393589 
0.051                          0.22722478221053 -179.912205341488 0.773534739965536 -5.25727573032771 0.59122661526593 -4.2990906213043 
                               0.773534739965536 -5.25727573032771 0.227098279302319 -179.911682972722 0.591274981803539 -4.2998003549531 
                               0.59122661526593 -4.2990906213043 0.591274981803539 -4.2998003549531 0.548241416757294 178.931686652132 
! Gamma         0.00158718017500582 1.07047491633881 0.00159159762323507 1.0704796782374  0.000955352189741531 1.06984399356655 
! Port Impedance         24.3237424618181 -0.0348641138310157 24.3268915849699 -0.0348576224961607 41.5979788079343 -0.0348720464176305 
0.052                          0.227258040313429 -179.910190335834 0.773531321001463 -5.36054676581104 0.591212281851651 -4.38308788393011 
                               0.773531321001463 -5.36054676581104 0.227131534181855 -179.909634121085 0.59126065494625 -4.38381476378616 
                               0.591212281851651 -4.38308788393011 0.59126065494625 -4.38381476378616 0.548268506649859 178.910015700177 
! Gamma         0.00160275232695331 1.09144883832646 0.00160721632159705 1.09145364648003 0.000964760298184522 1.09081179651493 
! Port Impedance         24.3234048050952 -0.0345274835091676 24.3265539929754 -0.0345210528939798 41.5976412762537 -0.034535134558536 
0.053                          0.22729193249254 -179.908204617802 0.773527857809406 -5.46381723689061 0.591197756044997 -4.46708913513718 
                               0.773527857809406 -5.46381723689061 0.227165424235316 -179.90761483878 0.591246135309555 -4.46783313941641 
                               0.591197756044996 -4.46708913513718 0.591246135309555 -4.46783313941641 0.548296002294195 178.888345624937 
! Gamma         0.00161816663858143 1.11242263309507 0.00162267670748283 1.11242748712182 0.000974073096735072 1.11177952251781 
! Port Impedance         24.3230768592995 -0.0342004682417563 24.3262261100514 -0.0341940966415148 41.5973134519222 -0.034207849562413 
0.054                          0.227326457457236 -179.906248310738 0.773524351666271 -5.56708727280666 0.59118303691429 -4.55109426760622 
                               0.773524351666271 -5.56708727280666 0.227199948155352 -179.905625241428 0.591231421972447 -4.5518553757932 
                               0.59118303691429 -4.55109426760622 0.591231421972447 -4.5518553757932 0.548323905565127 178.866676089552 
! Gamma         0.00163342900527658 1.13339630439212 0.00163798469389073 1.13340120392157 0.000983294144358202 1.13274717384279 
! Port Impedance         24.322758159409  -0.0338826261597179 24.3259074712651 -0.0338763119471679 41.5969948700742 -0.0338897488638892 
0.055                          0.227361614020943 -179.90432157703 0.773520803831659 -5.67035699000491 0.591168123762437 -4.63510318355079 
                               0.773520803831659 -5.67035699000491 0.227235104746641 -179.903665483699 0.591216514247255 -4.63588137617813 
                               0.591168123762437 -4.63510318355079 0.591216514247255 -4.63588137617813 0.548352218124096 178.845006786199 
! Gamma         0.00164854505881946 1.15436985539709 0.00165314592942979 1.15437480006837 0.000992426841010516 1.15371475241404 
! Port Impedance         24.3224482698184 -0.0335735413574553 24.3255976410951 -0.0335672829783934 41.5966850952524 -0.033580415912493 
0.056                          0.227397401093263 -179.902424614501 0.773517215548493 -5.773626493104  0.591153016107564 -4.7191157946255 
                               0.773517215548493 -5.773626493104  0.227270892917137 -179.90173575567 0.591201411660482 -4.71991105306353 
                               0.591153016107564 -4.7191157946255 0.591201411660482 -4.71991105306353 0.54838094144661 178.823337433886 
! Gamma         0.00166352015162773 1.17534328876251 0.00166816578251508 1.17534827822281 0.00100147441809577 1.1746822598371  
! Port Impedance         24.3221467822692 -0.0332728219228811 24.3252962113613 -0.0332666178920579 41.5963837193382 -0.033279458198242 
0.057                          0.227433817672881 -179.900557653161 0.773513588043489 -5.87689587576588 0.591137713665595 -4.80313202180436 
                               0.773513588043489 -5.87689587576588 0.227307311670198 -179.899836279534 0.591186113935544 -4.80394432806027 
                               0.591137713665595 -4.80313202180436 0.591186113935544 -4.80394432806027 0.548410076846384 178.801667776397 
! Gamma         0.00167835934479457 1.19631660665299 0.00168304932937028 1.19632164055607 0.00101043993121578 1.19564969742243 
! Port Impedance         24.3218533139365 -0.0329800981766489 24.3250027993122 -0.0329739470739566 41.5960903596398 -0.0329865054868641 
0.058                          0.22747086284117 -179.898720952249 0.773509922527491 -5.98016522148103 0.591122216334517 -4.88715179523772 
                               0.773509922527491 -5.98016522148103 0.227344360097481 -179.897967306617 0.591170620977196 -4.8879811317635 
                               0.591122216334517 -4.88715179523772 0.591170620977196 -4.8879811317635 0.548439625496575 178.779997580387 
! Gamma         0.0016930673993959 1.21728981078215 0.00169780134530866 1.21729488878699 0.00101932625489795 1.21661706620778 
! Port Impedance         24.3215675056593 -0.0326950210911283 24.3247170458558 -0.0326889215580458 41.5958046571219 -0.0327012082351565 
0.059                          0.227508535756392 -179.896914797561 0.773506220195704 -6.08343460427866 0.591106524180176 -4.97117505409447 
                               0.773506220195704 -6.08343460427866 0.2273820373725  -179.896129114673 0.591154932857468 -4.97202140360297 
                               0.591106524180176 -4.97117505409447 0.591154932857468 -4.97202140360297 0.54846958844848 178.75832663361  
! Gamma         0.00170764877059933 1.23826290244738 0.00171242629882418 1.23826802421696 0.00102813607901717 1.23758436697921 
! Port Impedance         24.3212890203012 -0.0324172608644906 24.32443861392   -0.0324112116007616 41.5955262747679 -0.0324232361618035 
0.06                           0.227546835648426 -179.89513949902 0.773502482227835 -6.18670408937073 0.591090637423426 -5.05520174639472 
                               0.773502482227835 -6.18670408937073 0.227420342744772 -179.894322005432 0.591139049802938 -5.05606509168319 
                               0.591090637423426 -5.05520174639472 0.591139049802938 -5.05606509168319 0.548499966647995 178.736654743274 
! Gamma         0.00172210760416257 1.25923588256258 0.00172692834807927 1.25924104776271 0.00103687190666278 1.25855160029084 
! Port Impedance         24.3210175412311 -0.0321465056292434 24.3241671869344 -0.0321405053897667 41.5952548960599 -0.0321522769529527 
0.061                          0.227585761813952 -179.893395388462 0.773498709788153 -6.28997373373739 0.591074556428485 -5.13923182883733 
                               0.773498709788153 -6.28997373373739 0.227459275534476 -179.892546302377 0.591122972183204 -5.14011215261792 
                               0.591074556428485 -5.13923182883733 0.591122972183204 -5.14011215261792 0.548530760950102 178.71498173452  
! Gamma         0.00173644773495876 1.28020875168871 0.0017413113394255 1.28021395998697 0.00104553605323157 1.27951876648334 
! Port Impedance         24.3207527709137 -0.0318824602778371 24.3239024674207 -0.0318765078697508 41.5949902235709 -0.031888035085139 
0.062                          0.22762531361204 -179.891682817631 0.773494904025497 -6.39324358666061 0.591058281692369 -5.22326526662545 
                               0.773494904025497 -6.39324358666061 0.227498835127563 -179.890802348719 0.591106700500427 -5.22416255136214 
                               0.591058281692369 -5.22326526662545 0.591106700500427 -5.22416255136214 0.548561972131632 178.693307448996 
! Gamma         0.00175067268721015 1.30118151006244 0.00175557880763777 1.30118676112721 0.00105413064655408 1.30048586570124 
! Port Impedance         24.3204944296024 -0.0316248453906846 24.3236441756856 -0.0316189396706288 41.5947319776567 -0.0316302307508687 
0.063                          0.2276654904601  -179.890002156345 0.773491066073224 -6.49651369021164 0.591041813835288 -5.30730203329262 
                               0.773491066073224 -6.49651369021164 0.227539020971274 -179.889090505555 0.591090235379822 -5.30821626104415 
                               0.591041813835288 -5.30730203329262 0.591090235379822 -5.30821626104415 0.548593600902485 178.671631743549 
! Gamma         0.00176478567615182 1.32215415762274 0.00176973397758288 1.32215945112232 0.0010626576278861 1.32145289790902 
! Port Impedance         24.3202422541248 -0.0313733962541937 24.3233920486069 -0.0313675361257367 41.5944798952423 -0.0313785988744356 
0.064                          0.227706291830146 -179.888353790833 0.773487197049117 -6.59978407969759 0.591025153591907 -5.39134211053163 
                               0.773487197049117 -6.59978407969759 0.22757983257001 -179.887411150201 0.591073577561012 -5.39227326279998 
                               0.591025153591907 -5.39134211053163 0.591073577561012 -5.39227326279998 0.548625647915514 178.649954489002 
! Gamma         0.00177878961088246 1.34312669403571 0.00178377976707861 1.34313202963749 0.00107111875361826 1.34241986290609 
! Port Impedance         24.3199959967554 -0.031127861958281 24.3231458385065 -0.0311220463694974 41.594233728695  -0.0311328882074183 
0.065                          0.227747717245341 -179.886738122213 0.773483298055265 -6.70305478407133 0.591008301803378 -5.47538548802735 
                               0.773483298055265 -6.70305478407133 0.227621269481525 -179.885764674665 0.591056727890141 -5.47633354561137 
                               0.591008301803378 -5.47538548802735 0.591056727890141 -5.47633354561137 0.548658113775197 178.628275569022 
! Gamma         0.00179268709819082 1.36409911871758 0.00179771879073148 1.36410449608727 0.00107951559757614 1.36338676034072 
! Port Impedance         24.3197554241684 -0.0308880045644021 24.322905312103  -0.0308822325055909 41.5939932447772 -0.0308928604948697 
0.066                          0.227789766276801 -179.885155565107 0.773479370177914 -6.80632582630875 0.590991259410063 -5.55943216329485 
                               0.773479370177914 -6.80632582630875 0.227663331313406 -179.884151484264 0.591039687312673 -5.5603971061488 
                               0.590991259410064 -5.55943216329485 0.591039687312673 -5.5603971061488 0.54869099904527 178.606594879071 
! Gamma         0.00180648044717446 1.38507143085602 0.00181155336456922 1.38507684965701 0.00108784955379987 1.38435358972292 
! Port Impedance         24.3195203164646 -0.0306535983364275 24.322670249539  -0.0306478688379611 41.5937582236736 -0.0306582897045151 
0.067                          0.227832438540619 -179.883606546375 0.773475414487297 -6.9095972237568 0.590974027444876 -5.64348214152355 
                               0.773475414487297 -6.9095972237568 0.227706017719806 -179.882571996361 0.591022456866812 -5.64446394862011 